5
Lattice="4.002006 0.0 0.0 0.0 4.002006 0.0 0.0 0.0 4.215507" Properties=species:S:1:pos:R:3:forces:R:3:magmoms:R:1 config_type=0kBaO3Ti energy=-43.95184625 stress="0.06472360079016826 1.3856150259460834e-06 8.301207137424734e-07 1.3856150259460834e-06 0.06472750797488107 2.3218413948285723e-06 8.301207137424734e-07 2.3218413948285723e-06 0.061470863275250705" magmom=-9.2e-06 pbc="T T T"
Ba       0.00000000       0.00000000       0.08528000       0.00002100       0.00000900       0.06076200       0.00000000 
Ti       2.00100000       2.00100000       2.27183000      -0.00002100      -0.00003900       0.12523400       0.00000000 
O       0.00000000       2.00100000       2.07413000      -0.00000600      -0.00001000       0.02462700      -0.00000000 
O       2.00100000       0.00000000       2.07413000      -0.00002800       0.00003100       0.02460100      -0.00000000 
O       2.00100000       2.00100000       4.09243000       0.00000800       0.00001600      -0.22479700      -0.00000000 
5
Lattice="4.002006 0.0 0.0 0.0 4.002006 0.0 0.0 0.0 4.215507" Properties=species:S:1:pos:R:3:forces:R:3:magmoms:R:1 config_type=0kBaO3Ti energy=-43.95235657 stress="0.061201479741377594 -1.93486782902381e-07 -6.481183076317176e-05 -1.93486782902381e-07 0.06132604153900285 0.00010392736845508213 -6.481183076317176e-05 0.00010392736845508213 0.057027726415317316" magmom=0.0003278 pbc="T T T"
Ba       4.00157000       0.00040000       0.08474000       0.00379000      -0.00841700       0.05871000      -0.00000000 
Ti       2.00406000       1.99805000       2.27214000       0.04301800      -0.01535600       0.12295600      -0.00000000 
O       3.99582000       2.00730000       2.07738000      -0.00545000      -0.00403300       0.01371000       0.00000000 
O       1.99994000       0.00305000       2.07651000      -0.02171400       0.02866800       0.01603800       0.00000000 
O       2.00285000       1.99701000       4.09040000      -0.01891200       0.01281800      -0.20079000       0.00000000 
5
Lattice="4.002006 0.0 0.0 0.0 4.002006 0.0 0.0 0.0 4.215507" Properties=species:S:1:pos:R:3:forces:R:3:magmoms:R:1 config_type=0kBaO3Ti energy=-43.95188346 stress="0.06127268287748567 -0.0 -0.0 -0.0 0.06127268287748567 0.0 -0.0 0.0 0.05794537805304118" magmom=0.0 pbc="T T T"
Ba       0.00000000       0.00000000       0.08528000      -0.00000000      -0.00000000       0.06145700      -0.00000000 
Ti       2.00100000       2.00100000       2.27183000      -0.00000000       0.00000000       0.10262700       0.00000000 
O       0.00000000       2.00100000       2.07413000      -0.00000000       0.00000000       0.03095600      -0.00000000 
O       2.00100000       0.00000000       2.07413000       0.00000000       0.00000000       0.03095600      -0.00000000 
O       2.00100000       2.00100000       4.09243000      -0.00000000      -0.00000000      -0.22599700      -0.00000000 
5
Lattice="3.842267012 0.0 0.0 0.0 3.842267012 0.0 0.0 -0.0 4.056383281" Properties=species:S:1:pos:R:3:forces:R:3:magmoms:R:1 config_type=0kBaO3Ti energy=-43.93225397 stress="-0.07588090377906981 -0.0 -0.0 -0.0 -0.07588090377906981 -0.0 -0.0 -0.0 -0.08118198600042885" magmom=-0.0 pbc="T T T"
Ba      -0.00000000      -0.00000000       0.08491000       0.00000000       0.00000000      -0.10480400       0.00000000 
Ti       1.92113000       1.92113000       2.19083000       0.00000000       0.00000000      -1.50249500       0.00000000 
O      -0.00000000       1.92113000       1.99727000       0.00000000       0.00000000      -0.12723400      -0.00000000 
O       1.92113000      -0.00000000       1.99727000      -0.00000000       0.00000000      -0.12723400       0.00000000 
O       1.92113000       1.92113000       3.92746000       0.00000000      -0.00000000       1.86176700      -0.00000000 
5
Lattice="3.923054672 0.0 0.0 0.0 3.923054672 0.0 0.0 -0.0 4.13685977" Properties=species:S:1:pos:R:3:forces:R:3:magmoms:R:1 config_type=0kBaO3Ti energy=-44.07980255 stress="0.0037913360619174006 -0.0 -0.0 -0.0 0.0037913360619174006 -0.0 -0.0 -0.0 -0.00041220174569158216" magmom=-0.0 pbc="T T T"
Ba      -0.00000000      -0.00000000       0.08506000       0.00000000       0.00000000      -0.01243600      -0.00000000 
Ti       1.96153000       1.96153000       2.23175000       0.00000000       0.00000000      -0.59880300      -0.00000000 
O      -0.00000000       1.96153000       2.03613000      -0.00000000       0.00000000      -0.03523800       0.00000000 
O       1.96153000      -0.00000000       2.03613000       0.00000000       0.00000000      -0.03523800       0.00000000 
O       1.96153000       1.96153000       4.01100000       0.00000000      -0.00000000       0.68171500      -0.00000000 
5
Lattice="3.905119731 0.0 0.0 0.0 3.905119731 0.0 0.0 -0.0 4.128105915" Properties=species:S:1:pos:R:3:forces:R:3:magmoms:R:1 config_type=0kBaO3Ti energy=-44.09502741 stress="-0.005312841224552214 -0.0 -0.0 -0.0 -0.005312841224552214 -0.0 -0.0 -0.0 0.017671928071115194" magmom=0.0 pbc="T T T"
Ba       0.00000000      -0.00000000       0.08453000       0.00000000       0.00000000      -0.12260200      -0.00000000 
Ti       1.95256000       1.95256000       2.20142000       0.00000000      -0.00000000       0.07402100      -0.00000000 
O      -0.00000000       1.95256000       2.03038000      -0.00000000       0.00000000      -0.00819000       0.00000000 
O       1.95256000      -0.00000000       2.03038000       0.00000000       0.00000000      -0.00819000       0.00000000 
O       1.95256000       1.95256000       4.03134000       0.00000000      -0.00000000       0.06496200      -0.00000000 
5
Lattice="3.905712025 0.0 0.0 0.0 3.905712025 0.0 0.0 -0.0 4.128395008" Properties=species:S:1:pos:R:3:forces:R:3:magmoms:R:1 config_type=0kBaO3Ti energy=-44.09535258 stress="-0.009988517989988637 -0.0 -0.0 -0.0 -0.009988517989988637 -0.0 -0.0 -0.0 0.013912180286883886" magmom=0.0 pbc="T T T"
Ba       0.00000000      -0.00000000       0.08455000       0.00000000       0.00000000      -0.11308200      -0.00000000 
Ti       1.95286000       1.95286000       2.20242000       0.00000000      -0.00000000       0.05400200       0.00000000 
O      -0.00000000       1.95286000       2.03057000       0.00000000      -0.00000000       0.00084300       0.00000000 
O       1.95286000      -0.00000000       2.03057000       0.00000000      -0.00000000       0.00084300      -0.00000000 
O       1.95286000       1.95286000       4.03066000       0.00000000      -0.00000000       0.05739400      -0.00000000 
5
Lattice="3.918776005 0.0 0.0 0.0 3.918776005 0.0 0.0 -0.0 4.093268483" Properties=species:S:1:pos:R:3:forces:R:3:magmoms:R:1 config_type=0kBaO3Ti energy=-44.1060208 stress="-0.004468190277564684 -0.0 -0.0 -0.0 -0.004468190277564684 -0.0 -0.0 -0.0 0.014251662209749804" magmom=-0.0 pbc="T T T"
Ba       0.00000000      -0.00000000       0.07884000       0.00000000       0.00000000      -0.13337300      -0.00000000 
Ti       1.95939000       1.95939000       2.17444000       0.00000000      -0.00000000       0.06168800       0.00000000 
O      -0.00000000       1.95939000       2.01269000       0.00000000      -0.00000000       0.04544500      -0.00000000 
O       1.95939000      -0.00000000       2.01269000       0.00000000      -0.00000000       0.04544500      -0.00000000 
O       1.95939000       1.95939000       4.01182000       0.00000000       0.00000000      -0.01920500      -0.00000000 
5
Lattice="3.954507072 0.0 0.0 0.0 3.954507072 0.0 0.0 -0.0 3.997194524" Properties=species:S:1:pos:R:3:forces:R:3:magmoms:R:1 config_type=0kBaO3Ti energy=-44.1139158 stress="0.008099175728529018 -0.0 -0.0 -0.0 0.008099175728529018 -0.0 -0.0 -0.0 0.005383850873877389" magmom=0.0 pbc="T T T"
Ba       0.00000000      -0.00000000       0.06355000       0.00000000       0.00000000      -0.15704700       0.00000000 
Ti       1.97725000       1.97725000       2.09852000       0.00000000       0.00000000      -0.02592900      -0.00000000 
O      -0.00000000       1.97725000       1.96380000       0.00000000      -0.00000000       0.19112300      -0.00000000 
O       1.97725000      -0.00000000       1.96380000       0.00000000      -0.00000000       0.19112300       0.00000000 
O       1.97725000       1.97725000       3.95927000       0.00000000       0.00000000      -0.19926900      -0.00000000 
5
Lattice="3.927823827 0.0 0.0 0.0 3.927823827 0.0 0.0 -0.0 3.97926562" Properties=species:S:1:pos:R:3:forces:R:3:magmoms:R:1 config_type=0kBaO3Ti energy=-44.11269491 stress="-0.016024874952413237 -0.0 -0.0 -0.0 -0.016024874952413237 -0.0 -0.0 -0.0 -0.02039283907643449" magmom=-0.0 pbc="T T T"
Ba       0.00000000      -0.00000000       0.05284000      -0.00000000       0.00000000      -0.10573700       0.00000000 
Ti       1.96391000       1.96391000       2.08739000       0.00000000       0.00000000      -0.14454100       0.00000000 
O      -0.00000000       1.96391000       1.96768000       0.00000000      -0.00000000       0.03359200      -0.00000000 
O       1.96391000      -0.00000000       1.96768000       0.00000000      -0.00000000       0.03359200      -0.00000000 
O       1.96391000       1.96391000       3.92829000       0.00000000      -0.00000000       0.18309500      -0.00000000 
5
Lattice="3.941735593 0.0 0.0 0.0 3.941735593 0.0 0.0 -0.0 3.98861316" Properties=species:S:1:pos:R:3:forces:R:3:magmoms:R:1 config_type=0kBaO3Ti energy=-44.11769762 stress="-0.0036266226360853414 -0.0 -0.0 -0.0 -0.0036266226360853414 0.0 -0.0 0.0 -0.007655504293824732" magmom=-0.0 pbc="T T T"
Ba       0.00000000      -0.00000000       0.05844000      -0.00000000       0.00000000      -0.13142400       0.00000000 
Ti       1.97087000       1.97087000       2.09319000       0.00000000       0.00000000      -0.08148100       0.00000000 
O      -0.00000000       1.97087000       1.96564000       0.00000000      -0.00000000       0.11569200      -0.00000000 
O       1.97087000      -0.00000000       1.96564000       0.00000000      -0.00000000       0.11569200      -0.00000000 
O       1.97087000       1.97087000       3.94445000       0.00000000       0.00000000      -0.01847800      -0.00000000 
5
Lattice="3.94117856 0.0 0.0 0.0 3.94117856 0.0 0.0 -0.0 4.003715372" Properties=species:S:1:pos:R:3:forces:R:3:magmoms:R:1 config_type=0kBaO3Ti energy=-44.12115849 stress="0.0005213657403032802 -0.0 -0.0 -0.0 0.0005213657403032802 0.0 -0.0 0.0 -0.0018323073510672961" magmom=0.0 pbc="T T T"
Ba       0.00000000      -0.00000000       0.04639000       0.00000000       0.00000000      -0.05462200       0.00000000 
Ti       1.97059000       1.97059000       2.09551000       0.00000000      -0.00000000       0.00196800       0.00000000 
O      -0.00000000       1.97059000       1.98537000       0.00000000      -0.00000000       0.00382100      -0.00000000 
O       1.97059000      -0.00000000       1.98537000      -0.00000000      -0.00000000       0.00382100      -0.00000000 
O       1.97059000       1.97059000       3.95270000       0.00000000      -0.00000000       0.04501200      -0.00000000 
5
Lattice="3.941093833 0.0 0.0 0.0 3.941093833 0.0 0.0 -0.0 4.006012481" Properties=species:S:1:pos:R:3:forces:R:3:magmoms:R:1 config_type=0kBaO3Ti energy=-44.12113109 stress="-0.0024315546422433477 -0.0 -0.0 -0.0 -0.0024315546422433477 -0.0 -0.0 -0.0 -0.0036227279343907896" magmom=-0.0 pbc="T T T"
Ba       0.00000000      -0.00000000       0.04455000      -0.00000000       0.00000000      -0.02735200       0.00000000 
Ti       1.97055000       1.97055000       2.09586000       0.00000000      -0.00000000       0.01636000       0.00000000 
O      -0.00000000       1.97055000       1.98837000       0.00000000       0.00000000      -0.02768100      -0.00000000 
O       1.97055000      -0.00000000       1.98837000       0.00000000       0.00000000      -0.02768100      -0.00000000 
O       1.97055000       1.97055000       3.95396000       0.00000000      -0.00000000       0.06635500      -0.00000000 
5
Lattice="3.948445411 0.0 0.0 0.0 3.948445411 -0.0 0.0 -0.0 4.016670296" Properties=species:S:1:pos:R:3:forces:R:3:magmoms:R:1 config_type=0kBaO3Ti energy=-44.1193939 stress="0.00550851877715778 -0.0 -0.0 -0.0 0.00550851877715778 -0.0 -0.0 -0.0 0.00799360684317383" magmom=-0.0 pbc="T T T"
Ba       0.00000000      -0.00000000       0.04335000      -0.00000000       0.00000000      -0.01002900      -0.00000000 
Ti       1.97422000       1.97422000       2.10261000      -0.00000000      -0.00000000       0.04669600       0.00000000 
O      -0.00000000       1.97422000       1.99159000       0.00000000      -0.00000000       0.00890600      -0.00000000 
O       1.97422000      -0.00000000       1.99159000       0.00000000      -0.00000000       0.00890600       0.00000000 
O       1.97422000       1.97422000       3.96877000      -0.00000000       0.00000000      -0.05447900      -0.00000000 
5
Lattice="3.943773429 0.0 0.0 0.0 3.943773429 -0.0 0.0 -0.0 4.009897177" Properties=species:S:1:pos:R:3:forces:R:3:magmoms:R:1 config_type=0kBaO3Ti energy=-44.1209837 stress="0.0008958001142741429 -0.0 -0.0 -0.0 0.0008958001142741429 -0.0 -0.0 -0.0 0.004365511210934779" magmom=0.0 pbc="T T T"
Ba       0.00000000      -0.00000000       0.04411000       0.00000000       0.00000000      -0.02604900       0.00000000 
Ti       1.97189000       1.97189000       2.09833000      -0.00000000      -0.00000000       0.04253900       0.00000000 
O      -0.00000000       1.97189000       1.98954000      -0.00000000       0.00000000      -0.01582000      -0.00000000 
O       1.97189000      -0.00000000       1.98954000      -0.00000000       0.00000000      -0.01582000       0.00000000 
O       1.97189000       1.97189000       3.95936000      -0.00000000      -0.00000000       0.01515100      -0.00000000 
5
Lattice="4.002006 0.0 0.0 0.0 4.002006 0.0 0.0 0.0 4.215507" Properties=species:S:1:pos:R:3:forces:R:3:magmoms:R:1 config_type=0kBaO3Ti energy=-43.95184625 stress="0.06472360079016826 1.3856150259460834e-06 8.301207137424734e-07 1.3856150259460834e-06 0.06472750797488107 2.3218413948285723e-06 8.301207137424734e-07 2.3218413948285723e-06 0.061470863275250705" magmom=-9.2e-06 pbc="T T T"
Ba       0.00000000       0.00000000       0.08528000       0.00002100       0.00000900       0.06076200       0.00000000 
Ti       2.00100000       2.00100000       2.27183000      -0.00002100      -0.00003900       0.12523400       0.00000000 
O       0.00000000       2.00100000       2.07413000      -0.00000600      -0.00001000       0.02462700      -0.00000000 
O       2.00100000       0.00000000       2.07413000      -0.00002800       0.00003100       0.02460100      -0.00000000 
O       2.00100000       2.00100000       4.09243000       0.00000800       0.00001600      -0.22479700      -0.00000000 
5
Lattice="4.002006 0.0 0.0 0.0 4.002006 0.0 0.0 0.0 4.215507" Properties=species:S:1:pos:R:3:forces:R:3:magmoms:R:1 config_type=0kBaO3Ti energy=-43.95238809 stress="0.06098579191051444 -2.5465357233603695e-06 -7.024194370269019e-05 -2.5465357233603695e-06 0.061131375110875665 0.00011966845447055972 -7.024194370269019e-05 0.00011966845447055972 0.056725531267969434" magmom=0.0003703 pbc="T T T"
Ba       4.00150000       0.00047000       0.08466000       0.00446900      -0.00975100       0.05887800      -0.00000000 
Ti       2.00453000       1.99760000       2.27219000       0.04656200      -0.01469900       0.12299800      -0.00000000 
O       3.99486000       2.00827000       2.07788000      -0.00198800      -0.00781500       0.00960500       0.00000000 
O       1.99977000       0.00352000       2.07688000      -0.02490800       0.03083600       0.01308300       0.00000000 
O       2.00314000       1.99640000       4.09011000      -0.02291300       0.01666600      -0.19390900       0.00000000 
