5
Lattice="4.002006 0.0 0.0 0.0 4.002006 0.0 0.0 0.0 4.215507" Properties=species:S:1:pos:R:3:forces:R:3:magmoms:R:1 config_type=0kBaO3Ti energy=-43.95184625 stress="0.06472360079016826 1.3856150259460834e-06 8.301207137424734e-07 1.3856150259460834e-06 0.06472750797488107 2.3218413948285723e-06 8.301207137424734e-07 2.3218413948285723e-06 0.061470863275250705" magmom=-9.2e-06 pbc="T T T"
Ba       0.00000000       0.00000000       0.08528000       0.00002100       0.00000900       0.06076200       0.00000000 
Ti       2.00100000       2.00100000       2.27183000      -0.00002100      -0.00003900       0.12523400       0.00000000 
O       0.00000000       2.00100000       2.07413000      -0.00000600      -0.00001000       0.02462700      -0.00000000 
O       2.00100000       0.00000000       2.07413000      -0.00002800       0.00003100       0.02460100      -0.00000000 
O       2.00100000       2.00100000       4.09243000       0.00000800       0.00001600      -0.22479700      -0.00000000 
5
Lattice="4.002006 0.0 0.0 0.0 4.002006 0.0 0.0 0.0 4.215507" Properties=species:S:1:pos:R:3:forces:R:3:magmoms:R:1 config_type=0kBaO3Ti energy=-43.95238809 stress="0.06098579191051444 -2.5465357233603695e-06 -7.024194370269019e-05 -2.5465357233603695e-06 0.061131375110875665 0.00011966845447055972 -7.024194370269019e-05 0.00011966845447055972 0.056725531267969434" magmom=0.0003703 pbc="T T T"
Ba       4.00150000       0.00047000       0.08466000       0.00446900      -0.00975100       0.05887800      -0.00000000 
Ti       2.00453000       1.99760000       2.27219000       0.04656200      -0.01469900       0.12299800      -0.00000000 
O       3.99486000       2.00827000       2.07788000      -0.00198800      -0.00781500       0.00960500       0.00000000 
O       1.99977000       0.00352000       2.07688000      -0.02490800       0.03083600       0.01308300       0.00000000 
O       2.00314000       1.99640000       4.09011000      -0.02291300       0.01666600      -0.19390900       0.00000000 
