5
Lattice="4.002006 0.0 0.0 0.0 4.002006 0.0 0.0 0.0 4.215507" Properties=species:S:1:pos:R:3:forces:R:3:magmoms:R:1 config_type=0kBaO3Ti energy=-43.95184625 stress="0.06472360079016826 1.3856150259460834e-06 8.301207137424734e-07 1.3856150259460834e-06 0.06472750797488107 2.3218413948285723e-06 8.301207137424734e-07 2.3218413948285723e-06 0.061470863275250705" magmom=-9.2e-06 pbc="T T T"
Ba       0.00000000       0.00000000       0.08528000       0.00002100       0.00000900       0.06076200       0.00000000 
Ti       2.00100000       2.00100000       2.27183000      -0.00002100      -0.00003900       0.12523400       0.00000000 
O       0.00000000       2.00100000       2.07413000      -0.00000600      -0.00001000       0.02462700      -0.00000000 
O       2.00100000       0.00000000       2.07413000      -0.00002800       0.00003100       0.02460100      -0.00000000 
O       2.00100000       2.00100000       4.09243000       0.00000800       0.00001600      -0.22479700      -0.00000000 
5
Lattice="4.002006 0.0 0.0 0.0 4.002006 0.0 0.0 0.0 4.215507" Properties=species:S:1:pos:R:3:forces:R:3:magmoms:R:1 config_type=0kBaO3Ti energy=-43.95235657 stress="0.061201479741377594 -1.93486782902381e-07 -6.481183076317176e-05 -1.93486782902381e-07 0.06132604153900285 0.00010392736845508213 -6.481183076317176e-05 0.00010392736845508213 0.057027726415317316" magmom=0.0003278 pbc="T T T"
Ba       4.00157000       0.00040000       0.08474000       0.00379000      -0.00841700       0.05871000      -0.00000000 
Ti       2.00406000       1.99805000       2.27214000       0.04301800      -0.01535600       0.12295600      -0.00000000 
O       3.99582000       2.00730000       2.07738000      -0.00545000      -0.00403300       0.01371000       0.00000000 
O       1.99994000       0.00305000       2.07651000      -0.02171400       0.02866800       0.01603800       0.00000000 
O       2.00285000       1.99701000       4.09040000      -0.01891200       0.01281800      -0.20079000       0.00000000 
